# vtk DataFile Version 5.1
vtk output
ASCII
DATASET STRUCTURED_GRID
DIMENSIONS 150 150 1
POINTS 22500 double
0 0 1125.9196573 0 100 1051.4150013 0 200 1062.3857174 
0 300 1127.1215925 0 400 1180.3390012 0 500 1184.605679 
0 600 1154.2051588 0 700 1126.0888874 0 800 1118.329373 
0 900 1119.74306 0 1000 1111.6853452 0 1100 1089.5776788 
0 1200 1061.9609836 0 1300 1036.9330395 0 1400 1016.6936049 
0 1500 1003.3819409 0 1600 1002.3371704 0 1700 1015.1403788 
0 1800 1032.8105278 0 1900 1041.6487111 0 2000 1037.4895551 
0 2100 1031.561187 0 2200 1040.1085185 0 2300 1069.335651 
0 2400 1111.9529056 0 2500 1156.9073545 0 2600 1198.9633001 
0 2700 1237.7338183 0 2800 1270.8320647 0 2900 1292.4088695 
0 3000 1299.5082893 0 3100 1297.1196766 0 3200 1294.0939665 
0 3300 1294.0542944 0 3400 1291.7779502 0 3500 1279.1211401 
0 3600 1253.7820641 0 3700 1222.0035279 0 3800 1193.9785588 
0 3900 1177.43925 0 4000 1174.4616543 0 4100 1181.6985359 
0 4200 1192.1131226 0 4300 1198.1830524 0 4400 1196.4121611 
0 4500 1190.3037129 0 4600 1188.0075988 0 4700 1195.0904573 
0 4800 1209.052879 0 4900 1221.5920633 0 5000 1226.9351656 
0 5100 1227.7241578 0 5200 1231.8513669 0 5300 1243.4370794 
0 5400 1257.4608667 0 5500 1263.8677321 0 5600 1257.0532552 
0 5700 1240.8463088 0 5800 1224.2553772 0 5900 1212.8884471 
0 6000 1205.0223351 0 6100 1195.8465309 0 6200 1184.2281439 
0 6300 1174.0813966 0 6400 1169.0099143 0 6500 1166.8902732 
0 6600 1161.3501005 0 6700 1148.8490243 0 6800 1133.2531441 
0 6900 1122.3792191 0 7000 1120.3713052 0 7100 1124.8319337 
0 7200 1131.7223251 0 7300 1141.3130564 0 7400 1156.8992368 
0 7500 1177.4591061 0 7600 1194.3243441 0 7700 1198.161428 
0 7800 1189.6919293 0 7900 1181.0142686 0 8000 1183.8468736 
0 8100 1196.5851936 0 8200 1205.0576678 0 8300 1197.4523492 
0 8400 1177.6268169 0 8500 1162.084313 0 8600 1163.4190234 
0 8700 1177.64055 0 8800 1188.4747729 0 8900 1183.3112152 
0 9000 1164.0357343 0 9100 1142.8604315 0 9200 1129.3835814 
0 9300 1123.0197587 0 9400 1117.0937307 0 9500 1108.0681411 
0 9600 1099.293728 0 9700 1095.9654711 0 9800 1097.9410849 
0 9900 1098.767306 0 10000 1092.1849957 0 10100 1079.2384804 
0 10200 1068.0641753 0 10300 1066.0888624 0 10400 1072.7802091 
0 10500 1081.4100299 0 10600 1088.5218319 0 10700 1099.6985191 
0 10800 1122.6987702 0 10900 1153.3834693 0 11000 1171.2523957 
0 11100 1154.1709086 0 11200 1100.3114951 0 11300 1033.8948848 
0 11400 985.86613786 0 11500 968.02609272 0 11600 967.78163092 
0 11700 968.00748787 0 11800 967.84508523 0 11900 979.86350354 
0 12000 1008.8816284 0 12100 1041.3317118 0 12200 1060.8652342 
0 12300 1071.3087869 0 12400 1095.7522371 0 12500 1149.0645478 
0 12600 1216.0918848 0 12700 1263.9404106 0 12800 1276.2241179 
0 12900 1268.9811244 0 13000 1269.1738938 0 13100 1282.3987226 
0 13200 1289.5605126 0 13300 1275.6919784 0 13400 1253.0937683 
0 13500 1248.2028856 0 13600 1268.4504025 0 13700 1291.970742 
0 13800 1294.4749217 0 13900 1279.3544459 0 14000 1272.0373127 
0 14100 1285.5484541 0 14200 1302.5938282 0 14300 1299.4638994 
0 14400 1281.6366185 0 14500 1281.9254321 0 14600 1317.2565337 
0 14700 1355.6289592 0 14800 1339.6229405 0 14900 1247.6776221 
100 0 1223.7757142 100 100 1158.3734173 100 200 1163.9703017 
100 300 1214.4011929 100 400 1259.0970167 100 500 1270.1219639 
100 600 1257.453745 100 700 1245.4240695 100 800 1244.1495143 
100 900 1246.3450228 100 1000 1244.52352 100 1100 1242.1407406 
100 1200 1246.5817964 100 1300 1257.8003485 100 1400 1269.4024834 
100 1500 1279.2681288 100 1600 1293.1459207 100 1700 1314.9552176 
100 1800 1336.9117962 100 1900 1344.2241054 100 2000 1330.9015668 
100 2100 1308.5785114 100 2200 1297.509399 100 2300 1308.9903534 
100 2400 1337.188047 100 2500 1366.8949871 100 2600 1386.9927535 
100 2700 1396.3013815 100 2800 1399.5321478 100 2900 1401.0931903 
100 3000 1403.3261314 100 3100 1407.8403616 100 3200 1415.3566347 
100 3300 1423.6192082 100 3400 1427.0376636 100 3500 1420.2549562 
100 3600 1402.8398202 100 3700 1380.5352026 100 3800 1361.9464076 
100 3900 1353.4736213 100 4000 1356.103497 100 4100 1365.4446399 
100 4200 1374.2085664 100 4300 1375.8823735 100 4400 1368.0472745 
100 4500 1353.509455 100 4600 1338.077315 100 4700 1326.1316469 
100 4800 1317.50769 100 4900 1308.528246 100 5000 1296.3815453 
100 5100 1282.5568989 100 5200 1271.6295156 100 5300 1266.3404058 
100 5400 1263.9545539 100 5500 1258.1758896 100 5600 1245.2271946 
100 5700 1227.8231993 100 5800 1212.4550316 100 5900 1202.3993637 
100 6000 1194.1416162 100 6100 1181.6891225 100 6200 1164.2723903 
100 6300 1148.3359433 100 6400 1140.5445628 100 6500 1139.3538326 
100 6600 1135.3670214 100 6700 1121.1445161 100 6800 1099.8655645 
100 6900 1082.6535004 100 7000 1077.3621115 100 7100 1081.5981373 
100 7200 1087.5101738 100 7300 1091.6221817 100 7400 1096.9910507 
100 7500 1105.4852402 100 7600 1111.3783993 100 7700 1106.2127799 
100 7800 1089.9329866 100 7900 1073.3626085 100 8000 1066.6750239 
100 8100 1066.6010288 100 8200 1058.7957019 100 8300 1034.777398 
100 8400 1004.3453199 100 8500 987.90444362 100 8600 995.63248797 
100 8700 1016.0172321 100 8800 1026.5562795 100 8900 1014.9292823 
100 9000 988.29989367 100 9100 962.64326356 100 9200 945.90064249 
100 9300 933.58527853 100 9400 919.03095944 100 9500 903.91873837 
100 9600 896.27871759 100 9700 899.20647315 100 9800 904.65252963 
100 9900 900.07100128 100 10000 880.86215492 100 10100 855.17713293 
100 10200 836.15021787 100 10300 830.22223354 100 10400 833.71126252 
100 10500 840.52524419 100 10600 851.52933641 100 10700 873.8020516 
100 10800 909.12016481 100 10900 943.8697811 100 11000 953.86312185 
100 11100 923.3116129 100 11200 860.74972849 100 11300 794.88209702 
100 11400 752.2403278 100 11500 737.94923629 100 11600 738.51029991 
100 11700 741.86006246 100 11800 751.18390476 100 11900 776.96505212 
100 12000 818.84208877 100 12100 862.10281234 100 12200 895.36078435 
100 12300 927.69779908 100 12400 980.91467021 100 12500 1062.1705342 
100 12600 1148.8437006 100 12700 1206.3722766 100 12800 1221.6253884 
100 12900 1214.3761435 100 13000 1213.9773198 100 13100 1228.8667301 
100 13200 1243.9878518 100 13300 1246.4098642 100 13400 1245.0900775 
100 13500 1259.8109797 100 13600 1294.6111298 100 13700 1331.0110494 
100 13800 1350.4629228 100 13900 1356.8182002 100 14000 1369.0793802 
100 14100 1393.6391922 100 14200 1413.3157747 100 14300 1409.9150928 
100 14400 1392.0617536 100 14500 1389.3814293 100 14600 1414.7418097 
100 14700 1439.4235575 100 14800 1416.3027449 100 14900 1330.805262 
200 0 1231.1237467 200 100 1171.8221254 200 200 1175.3665852 
200 300 1218.8067657 200 400 1261.5081341 200 500 1281.5241022 
200 600 1285.2254695 200 700 1287.9078014 200 800 1293.4373176 
200 900 1295.0731399 200 1000 1290.3709737 200 1100 1288.0535111 
200 1200 1298.7940366 200 1300 1323.4814861 200 1400 1353.9297984 
200 1500 1383.2637637 200 1600 1411.1714692 200 1700 1437.6828307 
200 1800 1455.6143606 200 1900 1454.0216564 200 2000 1430.4946613 
200 2100 1397.838445 200 2200 1375.9672664 200 2300 1376.2781715 
200 2400 1393.7554037 200 2500 1413.387891 200 2600 1423.213381 
200 2700 1421.7807659 200 2800 1415.7073551 200 2900 1412.4780785 
200 3000 1415.4885486 200 3100 1423.6795857 200 3200 1433.6653039 
200 3300 1441.8545756 200 3400 1445.6593256 200 3500 1443.9172848 
200 3600 1436.8872502 200 3700 1426.1927377 200 3800 1414.9232651 
200 3900 1407.2341951 200 4000 1406.479218 200 4100 1412.4872361 
200 4200 1420.4802578 200 4300 1423.5612723 200 4400 1417.3047431 
200 4500 1402.4120186 200 4600 1383.054004 200 4700 1362.88715 
200 4800 1342.9206745 200 4900 1322.8851921 200 5000 1303.655615 
200 5100 1287.4005047 200 5200 1275.2189317 200 5300 1265.2193469 
200 5400 1253.5672728 200 5500 1237.7888599 200 5600 1219.1430782 
200 5700 1201.6549976 200 5800 1188.4913534 200 5900 1178.85917 
200 6000 1168.5042084 200 6100 1153.7994424 200 6200 1135.8244466 
200 6300 1120.1234036 200 6400 1111.4648707 200 6500 1108.4678769 
200 6600 1104.0812734 200 6700 1092.3756783 200 6800 1075.0524427 
200 6900 1060.3444925 200 7000 1055.0325198 200 7100 1058.0925105 
200 7200 1062.6980586 200 7300 1063.8286209 200 7400 1062.3289967 
200 7500 1061.3159184 200 7600 1060.7082413 200 7700 1057.4681909 
200 7800 1050.7719614 200 7900 1043.7198374 200 8000 1037.828319 
200 8100 1027.789346 200 8200 1005.8586434 200 8300 973.44920901 
200 8400 945.62245024 200 8500 939.45182285 200 8600 956.24714214 
200 8700 977.41040301 200 8800 980.61944067 200 8900 960.2317671 
200 9000 930.20031298 200 9100 907.12909488 200 9200 893.25311774 
200 9300 878.27774095 200 9400 856.00857332 200 9500 834.3918272 
200 9600 826.39451053 200 9700 832.90413035 200 9800 838.91397099 
200 9900 828.33795047 200 10000 800.68266658 200 10100 770.76370025 
200 10200 752.53413889 200 10300 746.29434384 200 10400 743.34615093 
200 10500 740.84260156 200 10600 747.68054508 200 10700 773.20679862 
200 10800 811.46234916 200 10900 839.94085815 200 11000 836.59138002 
200 11100 798.85640429 200 11200 745.70205609 200 11300 701.08395409 
200 11400 675.72711989 200 11500 664.60433734 200 11600 660.12677613 
200 11700 664.5392782 200 11800 687.4638476 200 11900 732.15250112 
200 12000 787.64307649 200 12100 837.93948481 200 12200 879.1373347 
200 12300 924.60816209 200 12400 990.13846767 200 12500 1073.7305141 
200 12600 1152.7035851 200 12700 1202.8899524 200 12800 1220.2593484 
200 12900 1222.0259846 200 13000 1227.1111921 200 13100 1238.7355291 
200 13200 1247.9801812 200 13300 1251.3923261 200 13400 1259.0995189 
200 13500 1282.9720193 200 13600 1320.5703014 200 13700 1356.4444965 
200 13800 1380.1339286 200 13900 1397.8168253 200 14000 1421.7577558 
200 14100 1450.7011342 200 14200 1467.8073191 200 14300 1461.5088547 
[...]
POINT_DATA 22500
SCALARS elevation double
LOOKUP_TABLE default
1125.9196573 1051.4150013 1062.3857174 1127.1215925 1180.3390012 1184.605679 1154.2051588 1126.0888874 1118.329373 
1119.74306 1111.6853452 1089.5776788 1061.9609836 1036.9330395 1016.6936049 1003.3819409 1002.3371704 1015.1403788 
1032.8105278 1041.6487111 1037.4895551 1031.561187 1040.1085185 1069.335651 1111.9529056 1156.9073545 1198.9633001 
1237.7338183 1270.8320647 1292.4088695 1299.5082893 1297.1196766 1294.0939665 1294.0542944 1291.7779502 1279.1211401 
1253.7820641 1222.0035279 1193.9785588 1177.43925 1174.4616543 1181.6985359 1192.1131226 1198.1830524 1196.4121611 
1190.3037129 1188.0075988 1195.0904573 1209.052879 1221.5920633 1226.9351656 1227.7241578 1231.8513669 1243.4370794 
1257.4608667 1263.8677321 1257.0532552 1240.8463088 1224.2553772 1212.8884471 1205.0223351 1195.8465309 1184.2281439 
1174.0813966 1169.0099143 1166.8902732 1161.3501005 1148.8490243 1133.2531441 1122.3792191 1120.3713052 1124.8319337 
1131.7223251 1141.3130564 1156.8992368 1177.4591061 1194.3243441 1198.161428 1189.6919293 1181.0142686 1183.8468736 
1196.5851936 1205.0576678 1197.4523492 1177.6268169 1162.084313 1163.4190234 1177.64055 1188.4747729 1183.3112152 
1164.0357343 1142.8604315 1129.3835814 1123.0197587 1117.0937307 1108.0681411 1099.293728 1095.9654711 1097.9410849 
1098.767306 1092.1849957 1079.2384804 1068.0641753 1066.0888624 1072.7802091 1081.4100299 1088.5218319 1099.6985191 
1122.6987702 1153.3834693 1171.2523957 1154.1709086 1100.3114951 1033.8948848 985.86613786 968.02609272 967.78163092 
968.00748787 967.84508523 979.86350354 1008.8816284 1041.3317118 1060.8652342 1071.3087869 1095.7522371 1149.0645478 
1216.0918848 1263.9404106 1276.2241179 1268.9811244 1269.1738938 1282.3987226 1289.5605126 1275.6919784 1253.0937683 
1248.2028856 1268.4504025 1291.970742 1294.4749217 1279.3544459 1272.0373127 1285.5484541 1302.5938282 1299.4638994 
1281.6366185 1281.9254321 1317.2565337 1355.6289592 1339.6229405 1247.6776221 1223.7757142 1158.3734173 1163.9703017 
1214.4011929 1259.0970167 1270.1219639 1257.453745 1245.4240695 1244.1495143 1246.3450228 1244.52352 1242.1407406 
1246.5817964 1257.8003485 1269.4024834 1279.2681288 1293.1459207 1314.9552176 1336.9117962 1344.2241054 1330.9015668 
1308.5785114 1297.509399 1308.9903534 1337.188047 1366.8949871 1386.9927535 1396.3013815 1399.5321478 1401.0931903 
1403.3261314 1407.8403616 1415.3566347 1423.6192082 1427.0376636 1420.2549562 1402.8398202 1380.5352026 1361.9464076 
1353.4736213 1356.103497 1365.4446399 1374.2085664 1375.8823735 1368.0472745 1353.509455 1338.077315 1326.1316469 
1317.50769 1308.528246 1296.3815453 1282.5568989 1271.6295156 1266.3404058 1263.9545539 1258.1758896 1245.2271946 
1227.8231993 1212.4550316 1202.3993637 1194.1416162 1181.6891225 1164.2723903 1148.3359433 1140.5445628 1139.3538326 
1135.3670214 1121.1445161 1099.8655645 1082.6535004 1077.3621115 1081.5981373 1087.5101738 1091.6221817 1096.9910507 
1105.4852402 1111.3783993 1106.2127799 1089.9329866 1073.3626085 1066.6750239 1066.6010288 1058.7957019 1034.777398 
1004.3453199 987.90444362 995.63248797 1016.0172321 1026.5562795 1014.9292823 988.29989367 962.64326356 945.90064249 
933.58527853 919.03095944 903.91873837 896.27871759 899.20647315 904.65252963 900.07100128 880.86215492 855.17713293 
836.15021787 830.22223354 833.71126252 840.52524419 851.52933641 873.8020516 909.12016481 943.8697811 953.86312185 
923.3116129 860.74972849 794.88209702 752.2403278 737.94923629 738.51029991 741.86006246 751.18390476 776.96505212 
818.84208877 862.10281234 895.36078435 927.69779908 980.91467021 1062.1705342 1148.8437006 1206.3722766 1221.6253884 
1214.3761435 1213.9773198 1228.8667301 1243.9878518 1246.4098642 1245.0900775 1259.8109797 1294.6111298 1331.0110494 
1350.4629228 1356.8182002 1369.0793802 1393.6391922 1413.3157747 1409.9150928 1392.0617536 1389.3814293 1414.7418097 
1439.4235575 1416.3027449 1330.805262 1231.1237467 1171.8221254 1175.3665852 1218.8067657 1261.5081341 1281.5241022 
1285.2254695 1287.9078014 1293.4373176 1295.0731399 1290.3709737 1288.0535111 1298.7940366 1323.4814861 1353.9297984 
1383.2637637 1411.1714692 1437.6828307 1455.6143606 1454.0216564 1430.4946613 1397.838445 1375.9672664 1376.2781715 
1393.7554037 1413.387891 1423.213381 1421.7807659 1415.7073551 1412.4780785 1415.4885486 1423.6795857 1433.6653039 
1441.8545756 1445.6593256 1443.9172848 1436.8872502 1426.1927377 1414.9232651 1407.2341951 1406.479218 1412.4872361 
1420.4802578 1423.5612723 1417.3047431 1402.4120186 1383.054004 1362.88715 1342.9206745 1322.8851921 1303.655615 
1287.4005047 1275.2189317 1265.2193469 1253.5672728 1237.7888599 1219.1430782 1201.6549976 1188.4913534 1178.85917 
1168.5042084 1153.7994424 1135.8244466 1120.1234036 1111.4648707 1108.4678769 1104.0812734 1092.3756783 1075.0524427 
1060.3444925 1055.0325198 1058.0925105 1062.6980586 1063.8286209 1062.3289967 1061.3159184 1060.7082413 1057.4681909 
1050.7719614 1043.7198374 1037.828319 1027.789346 1005.8586434 973.44920901 945.62245024 939.45182285 956.24714214 
977.41040301 980.61944067 960.2317671 930.20031298 907.12909488 893.25311774 878.27774095 856.00857332 834.3918272 
826.39451053 832.90413035 838.91397099 828.33795047 800.68266658 770.76370025 752.53413889 746.29434384 743.34615093 
740.84260156 747.68054508 773.20679862 811.46234916 839.94085815 836.59138002 798.85640429 745.70205609 701.08395409 
675.72711989 664.60433734 660.12677613 664.5392782 687.4638476 732.15250112 787.64307649 837.93948481 879.1373347 
924.60816209 990.13846767 1073.7305141 1152.7035851 1202.8899524 1220.2593484 1222.0259846 1227.1111921 1238.7355291 
1247.9801812 1251.3923261 1259.0995189 1282.9720193 1320.5703014 1356.4444965 1380.1339286 1397.8168253 1421.7577558 
1450.7011342 1467.8073191 1461.5088547 1443.6215318 1438.6725787 1452.7941859 1458.8892342 1420.3235448 1331.4740593 
1163.5783586 1109.6411067 1121.7631863 1170.7056247 1215.1065279 1237.0435646 1247.0118068 1260.3994252 1276.5173981 
1282.5235683 1272.8516929 1258.7979233 1258.0515031 1278.2435753 1312.8852909 1350.7036491 1384.5181831 1410.4366135 
1423.0068755 1416.4647712 1391.9148185 1360.5502291 1336.9226773 1328.4800354 1332.0644797 1339.7240064 1346.377724 
1351.7264792 1356.91799 1361.8224516 1365.7055022 1368.8904037 1372.5256767 1377.0729728 1381.8309372 1385.6245994 
1387.1462257 1384.8662513 1378.0776564 1369.03654 1363.1059065 1364.8178053 1372.9031332 1380.0123324 1378.4817257 
1366.5177486 1348.4339154 1329.3738493 1311.0750759 1293.0817038 1276.3756998 1263.5995811 1255.2465129 1247.2908019 
1234.3913203 1215.5081587 1195.2233624 1178.9486654 1167.4869108 1157.0085496 1143.9279112 1128.78265 1115.0771039 
1105.238289 1098.5177748 1092.4339865 1085.3003636 1077.1198291 1068.9294388 1062.1379351 1058.1583146 1057.6385083 
1059.4118559 1060.6324602 1058.8430752 1054.3670001 1050.6198766 1051.5280591 1057.7477916 1064.5330156 1063.3725966 
1047.6409664 1019.2335958 990.51520175 977.46515616 986.98368722 1009.0735044 1023.1244159 1014.8813589 988.55953237 
961.35399257 945.40803763 936.39201573 921.20055289 895.72849745 871.50352788 862.61271682 867.90532218 870.03075351 
853.64689604 822.18272348 793.69460461 780.71639783 777.89346842 771.70914581 759.74684935 755.35766191 771.18370077 
800.84916864 821.2510198 814.17082716 783.51557305 749.51899557 727.60730734 716.23529471 706.10577707 697.8474934 
705.85961547 743.21147289 805.29950788 871.73255226 925.32864001 967.61128083 1014.1345562 1075.3035991 1143.7550969 
1201.3851672 1237.1447321 1255.7481979 1269.0084624 1281.5112336 1287.9127222 1284.1563882 1277.6285025 1282.4608729 
1304.6183904 1335.0034526 1359.9744921 1377.225566 1397.1869307 1427.0285278 1456.9283712 1467.8000916 1454.0089393 
1433.5522604 1429.399814 1439.7376486 1432.1382978 1373.7167265 1268.8099273 1083.4360809 1027.9951151 1053.9256524 
1119.5402166 1171.0223211 1189.1725904 1194.1806412 1211.2187167 1239.3961322 1256.5417795 1248.7012781 1227.7885132 
1219.0595517 1235.8227633 1269.9613377 1304.647199 1330.6382239 1348.4437674 1359.2470487 1359.7819826 1347.2471303 
1325.445597 1302.7427903 1284.7819433 1271.9437748 1263.9894676 1263.9740471 1274.8671934 1293.1603976 1308.9772879 
1314.2318248 1309.9658273 1304.6429145 1305.6824187 1313.584162 1323.4573983 1330.0777722 1330.7560166 1325.4125968 
1316.6602794 1309.9230029 1310.7590101 1319.6442964 1329.7003584 1331.6150693 1321.8181229 1305.2459255 1289.6466222 
1278.1016499 1268.1297345 1257.032698 1245.7095252 1236.2308492 1227.4128385 1215.3658904 1198.6148999 1180.6415344 
1165.9409011 1154.5483782 1142.5115586 1127.7884032 1113.6180781 1104.6380912 1100.6623873 1096.5706294 1088.6897132 
1079.3443997 1073.6450741 1072.6857238 1072.227431 1068.6016652 1063.7760849 1062.5915155 1065.6195713 1067.487483 
1063.7620245 1057.9157745 1058.6639677 1069.2375043 1080.8798367 1079.4355242 1059.5887374 1032.2386345 1016.6238526 
1023.8912783 1047.1699879 1067.0559417 1067.402139 1047.5263429 1020.7914492 1001.6197478 993.00488577 985.85055668 
970.1921817 946.79837953 926.81617076 919.23631449 919.51844966 912.58953442 888.42597529 853.75415006 826.29313603 
816.85924227 818.65236669 815.78269581 801.56811223 785.93181745 783.67752178 797.18015588 813.18615318 816.69488022 
805.40253579 788.88418642 775.68934467 765.58397513 756.24070207 754.36550369 774.86053996 826.1992705 898.38544033 
968.86135346 1021.8418173 1060.8749844 1101.431205 1152.3249729 1206.4713196 1250.0121417 1277.8177723 1297.0337651 
1315.6161998 1330.9508912 1333.2762138 1320.1768278 1303.9614371 1301.4140178 1316.7174263 1337.872484 1351.9020884 
1361.0438676 1379.3316558 1411.9588671 1442.6240498 1447.6444878 1423.884052 1397.0275554 1394.9896556 1411.9087891 
1404.7553847 1333.3654952 1206.3110372 1038.465432 965.07534424 996.16676327 1081.9993148 1149.3485769 1167.7306639 
1163.7222904 1177.2319767 1214.2043646 1246.3736328 1250.5311167 1237.0701381 1236.2782343 1262.8757596 1301.7975005 
1328.6310982 1336.8404142 1340.1237061 1351.387373 1366.5548762 1371.1707263 1358.0697584 1333.6428409 1308.1022747 
1285.384578 1265.2902457 1251.499742 1251.3869272 1266.3474642 1286.0200689 1295.9932057 1291.464677 1281.3703234 
1278.5575847 1287.3641079 1301.3145817 1310.9559123 1311.8750036 1306.0004213 1298.3705327 1294.2703978 1297.4130503 
1307.4745609 1318.4941117 1321.9842892 1313.9266739 1298.7221725 1284.97739 1277.0543288 1271.6628455 1262.8208225 
1248.684402 1232.372357 1217.0715447 1202.6220366 1187.4525995 1171.9265226 1157.8699851 1145.305986 1132.0607075 
1117.4868025 1104.7653708 1097.5982547 1094.9801027 1091.5339409 1083.9583569 1075.3609713 1071.3591339 1072.4662944 
1072.9011007 1068.009229 1060.717031 1058.1267218 1062.0739831 1066.0853965 1063.5013114 1056.5895975 1054.1640376 
1059.4016632 1063.1754483 1053.121578 1029.5001193 1009.0918466 1010.4880756 1035.1374991 1064.2409518 1075.1453766 
1060.7383925 1033.1683377 1010.1977731 999.24774044 994.05510325 984.54517553 968.03079755 950.90433639 940.6538539 
936.9288027 930.36858009 910.3368196 874.99728919 834.83049757 805.61629519 796.00309638 800.21412923 802.95407992 
792.84295482 772.34291619 755.04407361 752.97138535 766.04559676 782.96384134 791.18386716 786.06578038 772.1548259 
758.72130257 755.73973033 772.16776051 813.54706286 877.39686713 950.92874745 1016.7793392 1064.7375416 1099.2370658 
1134.2330506 1179.3210264 1230.6374938 1275.6362995 1306.1396402 1325.0634398 1339.8402661 1351.3662309 1352.7474898 
1340.1126976 1321.9031767 1313.4859334 1321.6864351 1337.81201 1349.2274338 1356.3322353 1372.572963 1404.4473817 
1435.5692491 1438.9248557 1408.6795262 1374.0690718 1371.6068107 1399.5012477 1406.4022664 1336.390591 1190.3094277 
1028.7283323 921.51484997 939.69747858 1037.3978878 1125.1701916 1154.052121 1147.2711156 1156.0129338 1197.4478977 
1243.8508244 1265.4832263 1268.9015351 1285.4808831 1329.2160027 1378.2235758 1401.2448017 1394.4861632 1384.1507171 
1393.9859041 1418.5931685 1432.6456087 1421.1219195 1393.2915474 1367.1339634 1347.6228916 1326.1213725 1298.2221475 
1274.3844035 1269.0980135 1282.8197959 1299.673586 1303.775031 1294.8927792 1286.332192 1289.4078721 1302.5143614 
1314.8021117 1317.6585232 1311.3522439 1302.6844755 1298.8044455 1302.982409 1313.5434947 1324.8370208 1330.2453287 
1326.5686823 1316.4167515 1305.6304614 1297.5524104 1290.0368573 1278.357299 1260.446865 1238.6661072 1216.8886078 
1197.1355571 1179.3543215 1163.1536674 1148.4268505 1134.5537889 1120.5955694 1106.9795525 1095.9179989 1089.0028414 
1084.7259073 1079.7853739 1073.1730378 1067.6186654 1065.8687222 1066.2931595 1064.0721097 1057.155965 1049.3833193 
1046.1879866 1047.8880352 1049.3234832 1046.5353574 1041.5634193 1038.4524321 1035.3937558 1024.5698249 1002.3922074 
978.54711233 970.98474123 989.06470248 1022.0148456 1046.0853956 1044.4938557 1020.6996075 992.51739552 974.48590414 
966.6693733 959.39493267 946.33893111 931.1823318 921.99444756 920.73617947 919.19965832 905.14357824 872.42579731 
826.45096588 781.10119352 750.00739541 738.38056718 740.3182604 743.15326781 736.19014339 718.19814291 698.30537318 
688.99224683 696.19143661 714.2384355 730.11139464 734.01915982 727.64472085 723.55922626 736.71279599 774.9510433 
835.21298064 906.28864221 974.72910358 1030.4341726 1070.6742757 1101.6618996 1135.2964427 1180.729201 1236.064583 
1288.3795028 1324.0950488 1340.5121172 1346.5032954 1351.4060187 1354.9529601 1350.4867761 1337.3601007 1326.119738 
1328.3506875 1343.3153905 1359.5373198 1370.6962242 1384.6036654 1410.4065446 1438.710526 1444.1930036 1415.3238913 
1377.1622613 1371.4990765 1406.0218456 1429.161068 1370.0823197 1213.0543331 1027.4274104 885.88449632 876.20772944 
966.58549587 1065.5882117 1110.5666992 1113.40873 1125.1905014 1170.550398 1227.2380513 1264.2192834 1283.1724555 
1312.3362626 1365.500008 1421.0648441 1447.0482987 1439.3098846 1425.5554747 1431.6971202 1452.8906313 1462.9228486 
1447.4271046 1419.3897841 1400.1650649 1392.2869361 1378.0244939 1344.0495655 1300.9657841 1274.0138727 1276.4591843 
1296.1732166 1309.1576856 1303.5669899 1288.5387806 1281.4014056 1289.2999678 1303.8832487 1311.5146144 1306.2848321 
1293.7761945 1284.474396 1284.7732452 1293.4365447 1304.6310505 1313.312509 1317.9747528 1319.3176244 1317.5027153 
1311.2531918 1299.4690873 1282.8499753 1263.2776694 1241.9787741 1219.1002354 1195.3181941 1172.8509389 1153.8276853 
1137.9416474 1122.8826603 1107.6348659 1094.3456037 1085.8163818 1081.5265514 1077.6215967 1071.5068049 1065.1766518 
1062.5726295 1063.9538021 1064.6285942 1060.1473833 1051.3747512 1043.0099072 1037.6801801 1033.596902 1028.8208364 
1025.2926224 1025.6951369 1026.5116463 1017.8914296 994.131358 963.97706849 947.19436634 957.75282673 989.66013224 
1020.6921516 1030.6920008 1016.6851506 991.49935536 969.66558705 955.87609241 945.47725133 933.10741119 919.16888164 
908.48705096 904.25199031 903.37462143 897.06602477 876.27123998 838.3237839 790.25307018 745.36292495 714.76439845 
700.37096098 695.11109421 690.01182871 681.04910253 670.02327717 660.68787077 655.35749876 654.9767852 660.20786788 
671.02927887 686.1197912 704.48848932 728.60286891 764.31823308 815.92562025 880.69982089 948.7614175 1009.0408956 
1055.7381258 1090.6091599 1121.1310959 1156.5279611 1202.7184171 1257.1339706 1307.7545261 1340.518297 1351.0400329 
1349.1154179 1349.1943405 1355.784195 1360.5426482 1355.1353905 1344.3781584 1342.3719335 1355.7326152 1375.7058083 
1390.2030377 1399.8991388 1414.9591432 1435.0291683 1441.6845427 1420.2644424 1387.0213879 1380.4724686 1414.3814707 
1443.6070517 1393.1030622 1233.7303318 1021.0762729 863.2992101 822.8771643 884.41968204 973.00990483 1028.405125 
1050.5449344 1077.1364093 1129.8553102 1192.8310932 1239.8473849 1268.9390496 1301.1535944 1349.5351268 1400.6131593 
1430.7867428 1434.8440405 1430.4736584 1434.9550144 1444.8965685 1443.5847546 1424.8302838 1402.196653 1392.1962303 
1393.000697 1385.0686611 1353.7313172 1307.6660452 1272.0777617 1264.2969698 1277.6006637 1289.2765461 1283.2390934 
1263.9030451 1249.264115 1251.9289098 1267.370763 1279.5684541 1276.5645633 1260.5301676 1243.7364265 1236.4746959 
1239.7636782 1248.5976329 1259.7120959 1273.7563712 1290.309519 1303.6293719 1305.8778238 1294.7162839 1275.6347701 
1255.8780681 1237.3341546 1216.8112243 1192.6508597 1168.2627043 1148.0016097 1131.5490569 1115.0114126 1097.5867166 
1084.12538 1079.3445615 1081.0064517 1081.559389 1076.9728906 1071.1898662 1070.3086359 1074.0461818 1075.6472527 
1070.2463142 1060.0525183 1049.9177702 1040.4650817 1029.1977476 1017.9809293 1014.0374497 1019.936797 1025.1059788 
1013.4391472 982.57285456 952.17786267 948.11355973 976.74081164 1016.997251 1039.8096903 1033.8113147 1011.0082008 
989.78980538 976.68520712 965.87919329 951.72352912 936.42141117 925.19382257 918.15057788 910.28118398 897.48981424 
879.28252004 855.63173966 824.89054999 787.56360022 749.91405637 720.23555927 700.86894651 686.45557489 672.06714931 
660.50771656 658.46258176 665.83943387 672.71841673 670.13184301 662.41126063 665.69494792 692.97184196 742.06721734 
799.5540139 854.36935503 905.66270348 958.01716237 1012.3351883 1063.8809269 1107.8001726 1144.3765129 1178.5427804 
1215.5282331 1257.1622714 1299.9869249 1335.7295642 1355.6597361 1357.8745363 1351.1554617 1348.7263234 1356.0547887 
1365.9852422 1368.1326448 1362.4487638 1359.8707996 1368.6552743 1383.8410567 1393.9963948 1396.5305124 1399.7828541 
1407.9552592 1410.8029638 1396.8075459 1375.6535811 1375.3170823 1405.9101311 1429.2442561 1379.364997 1226.587002 
1021.3241731 871.47331411 808.6704543 829.82736898 887.86633411 940.31044255 980.76324969 1027.2995048 1090.1277247 
1157.8581002 1212.8494334 1251.6728314 1285.4053792 1322.969532 1360.5592381 1388.6377281 1404.7084054 1414.6346654 
1422.5676601 1424.6975125 1415.5461626 1398.1771342 1383.8363997 1380.0327022 1381.0524668 1372.5333223 1346.1919941 
1309.1497233 1278.0409801 1264.0097936 1263.136285 1261.2827128 1248.1583389 1227.1063124 1211.7473798 1212.6373006 
1226.7622505 1239.8420801 1239.0378938 1223.694809 1203.961828 1190.3261391 1185.8732701 1188.5334885 1198.1087402 
1217.367306 1245.6502443 1273.9975465 1289.8519685 1287.3967516 1271.5565727 1251.492747 1231.7146223 1210.9094037 
1188.0602596 1165.9576641 1147.5654126 1131.4294254 1113.8519001 1095.6908006 1083.5595353 1082.5361155 1089.2728486 
1094.8388241 1094.5069086 1091.8501472 1092.2909081 1095.0860895 1094.2533513 1086.6438855 1075.2888873 1063.7860422 
1050.9600407 1034.7016903 1019.6411703 1014.9366719 1021.4679535 1025.1303506 1009.4063851 976.5480146 951.3155793 
958.4817918 996.49870152 1036.9092588 1051.3701572 1036.7536675 1012.3617304 995.93661637 987.66090529 977.85039679 
963.41231894 950.60986702 942.8586911 932.75976219 910.71777998 878.33536433 848.03440368 828.59854087 815.05950212 
795.77292899 766.69960579 734.8826144 708.50338392 688.50724614 673.00466421 665.75514153 674.02143583 696.4710476 
718.29170757 724.45456993 718.02065609 721.39918477 756.23901668 822.3873987 898.19678384 960.50317058 1002.9735222 
1035.9514286 1072.2443248 1115.8488473 1162.4877722 1206.8005434 1246.6936021 1282.347419 1313.6993458 1339.1605077 
1355.8948818 1361.4179613 1356.4945966 1347.2106654 1342.3053114 1346.5215093 1356.591046 1365.1302829 1368.6747601 
1370.0841132 1372.7064835 1374.6737205 1371.6382678 1364.1329512 1357.9002811 1355.4200595 1351.1790803 1340.5602974 
1332.2504282 1343.052747 1372.9880078 1387.8256582 1337.4921279 1202.1586649 1042.4676781 915.14419942 842.59691476 
828.74509477 851.61009691 889.1555569 935.03754523 993.11539449 1063.3384443 1136.8067336 1202.7675902 1256.4323938 